<?xml version="1.0" encoding="UTF-8"?>

<!-- generated on 09/23/19 12:39:03 by Eclipse SUMO Version 1.3.1
<configuration xmlns:xsi="http://www.w3.org/2001/XMLSchema-instance" xsi:noNamespaceSchemaLocation="http://sumo.dlr.de/xsd/sumoConfiguration.xsd">

    <input>
        <net-file value="osm.net.xml"/>
        <route-files value="osm_pt.rou.xml,osm.passenger.trips.xml,osm.truck.trips.xml,osm.motorcycle.trips.xml,osm.bicycle.trips.xml,osm.pedestrian.rou.xml,osm.rail.trips.xml,osm.ship.trips.xml"/>
        <additional-files value="osm.poly.xml,osm_stops.add.xml"/>
    </input>

    <output>
        <vehroute-output value="vehroutes.xml"/>
        <vehroute-output.last-route value="true"/>
        <vehroute-output.sorted value="true"/>
    </output>

    <processing>
        <ignore-route-errors value="true"/>
    </processing>

    <routing>
        <device.rerouting.adaptation-steps value="180"/>
    </routing>

    <report>
        <verbose value="true"/>
        <log value="log.txt"/>
        <duration-log.statistics value="true"/>
        <no-step-log value="true"/>
    </report>

    <gui_only>
        <gui-settings-file value="osm.view.xml"/>
    </gui_only>

</configuration>
-->

<routes xmlns:xsi="http://www.w3.org/2001/XMLSchema-instance" xsi:noNamespaceSchemaLocation="http://sumo.dlr.de/xsd/routes_file.xsd">
    <person id="ped0" type="ped_pedestrian" depart="0.00" arrival="262.00">
        <walk edges="283006421#0 456662392#1 456662392#0 150937132#0 -31306520#0 -150937047#3"/>
    </person>

    <person id="ped24" type="ped_pedestrian" depart="243.64" arrival="381.00">
        <walk edges="283006412#4 283006412#3 283006412#2 -142540752#0 128020893#3"/>
    </person>

    <person id="ped13" type="ped_pedestrian" depart="131.97" arrival="413.00">
        <walk edges="-25000113#13 -25000113#11 -25000113#10 -25000113#8"/>
    </person>

    <person id="ped8" type="ped_pedestrian" depart="81.21" arrival="450.00">
        <walk edges="-336735697#6 173640273#3 173640273#2" busStop="349047807"/> <!-- Hirschgarten -->
        <ride from="144077983" to="144077982#2" busStop="349050439" lines="61:0" intended="pt_tram_61:0.0" depart="174.00"/> <!-- Wassersportzentrum -->
        <walk edges="26489720#3 217386899#0 217386899#1 217386899#2 217386899#3 26489577#3 26489577#4"/>
    </person>

    <person id="ped41" type="ped_pedestrian" depart="416.22" arrival="572.00">
        <walk edges="26489523#2 378382064 378382066#1 37849792#4 26489522#0 48551276"/>
    </person>

    <person id="ped49" type="ped_pedestrian" depart="497.43" arrival="639.00">
        <walk edges="723757291#8 353701671#1 353701671#0 353619694#3 353619698#0 353619698#1 353619698#2 44329176#2 44329176#1"/>
    </person>

    <person id="ped14" type="ped_pedestrian" depart="142.12" arrival="661.00">
        <walk edges="441521936#0 441521967#0 441521967#1 441521967#2 272111660#0 26489577#8 196624981#4 -196624981#3 -196624981#2 -196624981#1 355340612 -353906000#3 26489647#1"/>
    </person>

    <person id="ped62" type="ped_pedestrian" depart="629.41" arrival="694.00">
        <walk edges="-105006227#0 587291618#0 587291618#1 -587695675"/>
    </person>

    <person id="ped12" type="ped_pedestrian" depart="121.82" arrival="724.00">
        <walk edges="682460124#1" busStop="3890748385"/> <!-- Müggelseedamm/Bölschestraße -->
        <ride from="30689379#0" to="30689379#1" busStop="3890748380" lines="60:0" intended="pt_tram_60:0.0" depart="249.00"/> <!-- Marktplatz Friedrichshagen -->
        <walk edges="30689380#0 30689380#1 723757292 723757291#0 723757291#1 723757291#3 723757291#4 723757291#5 723757291#6 723757291#7 723757291#8 -723757291#9 -723757291#10 -723757291#11 -723757291#12"/>
    </person>

    <person id="ped25" type="ped_pedestrian" depart="253.79" arrival="784.00">
        <walk edges="141520964#1 44773369 31091036#9 31091036#10" busStop="1844135182"/> <!-- Westendsiedlung -->
        <ride from="144077985" to="173640266" busStop="1906474291" lines="60:0" intended="pt_tram_60:0.0" depart="653.00"/> <!-- Hirschgarten -->
        <walk edges="193875645#0 193875645#3 -329190066#0"/>
    </person>

    <person id="ped70" type="ped_pedestrian" depart="710.62" arrival="868.00">
        <walk edges="23045995#2 -23045995#1 -23045996#0 25799153#0 -25799153#1 25799153#2"/>
    </person>

    <person id="ped4" type="ped_pedestrian" depart="40.61" arrival="898.00">
        <walk edges="151237831#9 151237831#7 151237827#0 151237827#1 151237827#2 151237827#3 151237827#4 151237827#6 151237827#7 -283006412#2 -283006412#1 -283006412#0 30689380#0" busStop="3890748378"/> <!-- Marktplatz Friedrichshagen -->
        <ride from="179081032#0" to="171257586" busStop="1883472919" lines="60:1" intended="pt_tram_60:1.0" depart="511.00"/> <!-- Altes Wasserwerk -->
        <walk edges="457284537#0 457284537#1" busStop="349055255"/> <!-- Altes Wasserwerk -->
        <walk edges="457284539#1 -150937110#0"/>
    </person>

    <person id="ped54" type="ped_pedestrian" depart="548.19" arrival="924.00">
        <walk edges="194205728 37849792#2 26489523#4 723752286 723754577 723752287 723754576 266454541#0 48551276 9702843#1 9702843#0 25307934#0 638460947#1 638460947#0"/>
    </person>

    <person id="ped18" type="ped_pedestrian" depart="182.73" arrival="992.00">
        <walk edges="426572490#1 23463721#0 23463721#1 23463721#2 23463721#3 150937119#2 25194873#1 -25016103#10 -25016103#9 -25016103#8 -25016103#7 25016103#6 25016103#5 25016103#4 25016103#3 -462852147#0 -462852147#1 26624363#2"/>
    </person>

    <person id="ped10" type="ped_pedestrian" depart="101.52" arrival="1022.00">
        <walk edges="37849792#0 26489522#3 26489522#2 26489522#1 26489522#0 9702843#1 191238427#0 25016105 331318343#1 331318343#0 25000104#7 25000104#6 25000104#5 25000104#4 25000104#3 25000104#2 410646532#1 410646532#0 331318342#8"/>
    </person>

    <person id="ped28" type="ped_pedestrian" depart="284.25" arrival="1026.00">
        <walk edges="-26489647#0 -26489647#1 -353906000#2 -353906000#1 353906000#0 355340606 26489814#1 44329177#0 44329177#1 353619697#4 353619691#0 353619698#6"/>
    </person>

    <person id="ped22" type="ped_pedestrian" depart="223.34" arrival="1118.00">
        <walk edges="-221885376 -272111635#4 -25192970 217390587 -217390627#0 -217390627#1 589830402 25799297#4" busStop="319242587"/> <!-- S Hirschgarten -->
        <walk edges="294991110#0 294991101 294991103#1 -294991095 294991104#1 -23045995#1 -35403473#1 -35403473#0"/>
    </person>

    <person id="ped38" type="ped_pedestrian" depart="385.77" arrival="1148.00">
        <walk edges="54428875#1 206798692#1 461015804 -25307868#2 -25307868#1 -25307868#0 283006414#0 283006414#1 283006414#2 193875628#0 193875628#1 193875628#2 193875628#3 31091036#0 31091036#1 31091036#2 31091036#3 148614177#2 221885377#0 217386895#2 217386895#1 217386893"/>
    </person>

    <person id="ped33" type="ped_pedestrian" depart="335.01" arrival="1211.00">
        <walk edges="-353892425 -353892426#0 201971559#0 456662393 43167434#0 43167434#1 43167434#2 -9628124#2 9628124#1 9628124#0 594582763 594582762" busStop="1883458398"/> <!-- S Friedrichshagen -->
        <ride from="107704578" to="25000105#1" busStop="349055083" lines="61:0" intended="pt_tram_61:0.0" depart="617.00"/> <!-- Hartlebenstraße -->
        <walk edges="23463724#0 -25194874#2 -25194874#1 -25194874#0 25194873#0 25194873#1 -25016103#10 -25016103#9 -25016103#8 -25016103#7 -25016103#6 -150937113#5 -150937113#4 -150937113#3 -150937113#2"/>
    </person>

    <person id="ped58" type="ped_pedestrian" depart="588.80" arrival="1280.00">
        <walk edges="-46854116#1 -46854116#2 -46854116#3 283006421#1 304398009#2 456662393 43167434#0 43167434#1 43167434#2 -25307868#4 -25307868#3 -25307868#2 -25307868#1 -25307868#0 283006414#0 283006414#1 283006414#2"/>
    </person>

    <person id="ped88" type="ped_pedestrian" depart="893.35" arrival="1283.00">
        <walk edges="-25016103#0 -25016103#1 -25016103#2 -25016103#3 -25016103#4 154754323#3 154754323#2"/>
    </person>

    <person id="ped15" type="ped_pedestrian" depart="152.28" arrival="1290.00">
        <walk edges="37849792#3 26489523#4 723752286 723754577 723752287 723754576 266454541#0 48551276 9702843#1 9702843#0 25307934#0 638460947#1 638460947#0 638460946 328253843#2 328253843#1 328253843#0 30689380#1 30689380#0 -283006412#0 -283006412#1 -283006412#2 151237827#7 151237827#6 151237827#4 151237827#3 151237827#2 151237827#1 151237827#0 -151237831#7 -151237831#9 -151237831#10 -151237831#11 -151237831#12 -151237831#14 353701668#0"/>
    </person>

    <person id="ped86" type="ped_pedestrian" depart="873.05" arrival="1308.00">
        <walk edges="217390627#0 354018166 -9622672 25799297#1 25799297#2 54432333 37489623 37523779#0 37523779#1 37523780 587740134 37452301#0"/>
    </person>

    <person id="ped1" type="ped_pedestrian" depart="10.15" arrival="1319.00">
        <walk edges="-426572490#4 -426572490#5 150937163#0 23429732#0 23429732#1 -52764138#3 264945980#0 264945980#1" busStop="598350419"/> <!-- Wasserwerk Friedrichshagen -->
        <ride from="143742581#2" to="143742581#5" busStop="254100382" lines="61:0" intended="pt_tram_61:0.0" depart="783.00"/> <!-- Fürstenwalder Damm -->
        <walk edges="-724688434#0 -724688434#1 -724688434#2 -35096784#0"/>
    </person>

    <person id="ped6" type="ped_pedestrian" depart="60.91" arrival="1330.00">
        <walk edges="-150937052 520100576#0 520100576#1 594582762 594582763 9628124#0 -9628124#1 -9628124#2 43167434#2 43167434#1 43167434#0 -456662393 -283006421#2 -283006421#1 -283006421#0 456662392#1 456662392#0 150937132#0 -31306520#0 -31306520#1 -31306520#2 -31306520#3 -31306520#4 -31306520#5 -31306520#6 -31306481#0 -31306481#1 -31306481#2"/>
    </person>

    <person id="ped17" type="ped_pedestrian" depart="172.58" arrival="1331.00">
        <walk edges="148614183#0 148614183#1 148614183#2 148614183#3 148614183#4 148614183#5 148614183#6 -25799283#1 -25799283#0 25374266 -25374267 -587260134#1 -587260134#0 -35403555#2 35403691#0 35403691#1 587687958#0 587687958#1 -587291621 -35414072#0 -587687968#1 587687968#0 25799153#8"/>
    </person>

    <person id="ped7" type="ped_pedestrian" depart="71.06" arrival="1344.00">
        <walk edges="294991110#1 294991110#2 23045996#3 23045996#4 -52710327#0 -52710327#1 -52710327#2 -52710327#3 -37849716#0 -37849716#1 -328400400#0 -328400400#1 -328400400#2 25799015"/>
    </person>

    <person id="ped78" type="ped_pedestrian" depart="791.83" arrival="1379.00">
        <walk edges="-723757291#6 -723757291#7 -723757291#8 -723757291#9 -723757291#10 -723757291#11 -723757291#12 26489814#2 355340606 353916927#1 26489577#3 26489577#2"/>
    </person>

    <person id="ped104" type="ped_pedestrian" depart="1055.78" arrival="1448.00">
        <walk edges="148614183#10 148614183#11 148614183#12 148614183#13 148614183#14 148614183#15 148614183#16 148614183#17 172696060 -172696063#0 172696064 31091036#16 75252111#0"/>
    </person>

    <person id="ped89" type="ped_pedestrian" depart="903.50" arrival="1456.00">
        <walk edges="15228215#1 462826522 441521955#1 148614183#11 148614183#10 -148614183#9 25192969#0 25192969#1 25192969#2 25192969#3 25192969#4 25192969#5 25332283#2 217386898#0 217386898#1 217386902#2"/>
    </person>

    <person id="ped32" type="ped_pedestrian" depart="324.85" arrival="1463.00">
        <walk edges="432116461#3 279808663#1 43167434#2 43167434#1 43167434#0 328399245 328400408#2 328400408#1 328400408#0 328400402 31307043#2 31307043#1 67196896 34022544#3 34022544#2 34022544#1 34022544#0 328400411#3 -37849716#1 -35403762 35967335#1"/>
    </person>

    <person id="ped93" type="ped_pedestrian" depart="944.11" arrival="1484.00">
        <walk edges="44329176#4 353619697#0 353619687#3 353619687#2 353619687#1 353619694#0 520100578 353701672#2 353701672#1 353701671#1 723757291#7 -151237831#6 -151237831#7 -151237831#9 -151237831#10 -151237831#11 355358376 -355358376"/>
    </person>

    <person id="ped21" type="ped_pedestrian" depart="213.19" arrival="1486.00">
        <walk edges="-353701675#0 353701675#0 -151237831#10 -151237831#9 -151237831#7 151237827#0 151237827#1 151237827#2 151237827#3 151237827#4 151237827#6 151237827#7 -283006412#2 -283006412#1 283006412#0 151237809#0 124907823#1 124907823#0 150937060 -25194206#0 25194206#1 25194206#2 150937131#0 154754277 25192964#0 25192964#1 25192964#2 -150937110#3 150937110#2 150937110#1 -457284539#1"/>
    </person>

    <person id="ped125" type="ped_pedestrian" depart="1268.96" arrival="1523.00">
        <walk edges="-587687963 -587687959#1 589857261 587291619#1 587291619#0 35414073#0 -587687976#0 35403691#1"/>
    </person>

    <person id="ped92" type="ped_pedestrian" depart="933.96" arrival="1542.00">
        <walk edges="150937133 25000113#13 25000113#11 25000113#10 25000113#8 25000113#7 25000113#5" busStop="-3890748374"/> <!-- Josef-Nawrocki-Straße -->
        <ride from="-288073818" to="30689379#1" busStop="3890748380" lines="60:0" intended="pt_tram_60:0.1" depart="1383.00"/> <!-- Marktplatz Friedrichshagen -->
        <walk edges="30689380#0 30689380#1 -723757292"/>
    </person>

    <person id="ped29" type="ped_pedestrian" depart="294.40" arrival="1562.00">
        <walk edges="-26407379#0 -26489808#1 -26489808#0 217386887#1 217386887#0 26280393 410646532#1 410646532#0" busStop="1883502289"/> <!-- Spreestraße -->
        <ride from="144077980#0" to="173640266" busStop="1906474291" lines="61:1" intended="pt_tram_61:1.0" depart="1027.00"/> <!-- Hirschgarten -->
        <walk edges="173640273#2" busStop="349047807"/> <!-- Hirschgarten -->
        <ride from="144077983" to="93704177#1" busStop="349047810" lines="60:1" intended="pt_tram_60:1.1" depart="1295.00"/> <!-- Westendsiedlung -->
        <walk edges="31091036#10 31091036#11 -148614178 148614183#11"/>
    </person>

    <person id="ped105" type="ped_pedestrian" depart="1065.93" arrival="1575.00">
        <walk edges="-38095508#0 150103636 173640273#4 173640273#3 173640273#2" busStop="349047807"/> <!-- Hirschgarten -->
        <ride from="144077983" to="173640262" busStop="349058473" lines="60:1" intended="pt_tram_60:1.1" depart="1295.00"/> <!-- Ahornallee -->
        <walk edges="283006414#2 37452300"/>
    </person>

    <person id="ped46" type="ped_pedestrian" depart="466.98" arrival="1610.00">
        <walk edges="37452318#2 -25799239#0 23045996#0 23045996#2 23045996#3 23045996#4 25374266 -25799283#0 -25799283#1 -25332283#0 -25332283#1 -25332283#2 -25332283#3 -25332283#4 31091036#6 31091036#5" busStop="349047813"/> <!-- Mühlweg -->
        <ride from="93704167#0" to="173640262" busStop="349058473" lines="60:1" intended="pt_tram_60:1.1" depart="1438.00"/> <!-- Ahornallee -->
        <walk edges="151237817#4 151237846#0"/>
    </person>

    <person id="ped82" type="ped_pedestrian" depart="832.44" arrival="1622.00">
        <walk edges="44329175#1 44329175#0 353619697#3 44329177#1 44329177#0 26489814#1 355340606 353906000#0 -353906000#1 -353906000#2 -353906000#3 355340612 -196624981#0"/>
    </person>

    <person id="ped77" type="ped_pedestrian" depart="781.68" arrival="1634.00">
        <walk edges="-25307868#3 -25307868#4 43167434#2 43167434#1 43167434#0 -456662393 -283006421#2 -283006421#1 -283006421#0 456662392#1 456662392#0 150937132#0 -31306520#0 150937047#3 150937047#4 150937047#5 150937047#6 150937047#7 326297271 -35321083#0"/>
    </person>

    <person id="ped80" type="ped_pedestrian" depart="812.14" arrival="1647.00">
        <walk edges="-196624981#0 -462826507 26489644#2 26489644#1 26489644#0 31091036#0 193875628#3 193875628#2 193875628#1 193875628#0 283006414#2" busStop="349058473"/> <!-- Ahornallee -->
        <ride from="173640262" to="179081032#0" busStop="3890748391" lines="60:1" intended="pt_tram_60:1.1" depart="1511.00"/> <!-- S Friedrichshagen -->
        <walk edges="9628124#0 9628124#1 9628124#2 279808663#1"/>
    </person>

    <person id="ped44" type="ped_pedestrian" depart="446.68" arrival="1663.00">
        <walk edges="-25000112#7 -384630981 -25194206#6 -25194206#5 -25194206#4 -25194206#3 -25194206#2 -25194206#1 -25194206#0 150937060 124907823#0 124907822 -30689380#0" busStop="3890748380"/> <!-- Marktplatz Friedrichshagen -->
        <ride from="30689379#1" to="107704595" busStop="3890748371" lines="60:0" intended="pt_tram_60:0.1" depart="1516.00"/> <!-- Drachholzstraße -->
        <walk edges="-283006412#6 460345888 -151237805#5"/>
    </person>

    <person id="ped106" type="ped_pedestrian" depart="1076.08" arrival="1666.00">
        <walk edges="196624981#2 -196624981#3 196624981#4 26489577#8" busStop="349047813"/> <!-- Mühlweg -->
        <ride from="93704167#0" to="173640262" busStop="349058473" lines="60:1" intended="pt_tram_60:1.1" depart="1438.00"/> <!-- Ahornallee -->
        <walk edges="151237817#4 151237817#3 151237817#2 154754286#0 151237847"/>
    </person>

    <person id="ped64" type="ped_pedestrian" depart="649.71" arrival="1678.00">
        <walk edges="457284539#1" busStop="349055255"/> <!-- Altes Wasserwerk -->
        <walk edges="457284537#1 457284541 -25000113#17 690827778 279125376#1 279125376#2 685460476#0 685460476#1 685460476#2 685460476#3 690827780 685460477#0 685460477#1 31091055 43167419#0 43167419#1"/>
    </person>

    <person id="ped96" type="ped_pedestrian" depart="974.56" arrival="1708.00">
        <walk edges="-358701394 37849738#0 43169787#1 43169787#0 328400400#2 328400400#1 328400400#0 -37849716#1 -37849716#0 217390621 -26192423 -586055414 -586676240 584000599#5 35403629#0 35403629#1 587291618#0 587291618#1 587291618#2 587291618#3"/>
    </person>

    <person id="ped31" type="ped_pedestrian" depart="314.70" arrival="1721.00">
        <walk edges="25799239#7 -25799239#6 -25799239#5 -25799239#4 -25799239#3 -25799239#2 -25799239#1 -25799239#0 -23045996#0 -23045996#2 -23045996#3 -25374267 -52710327#0 -52710327#1 -52710327#2 -52710327#3 -37849716#0 -37849716#1 328400400#0 328400400#1"/>
    </person>

    <person id="ped40" type="ped_pedestrian" depart="406.07" arrival="1722.00">
        <walk edges="25799297#4 217390581#0 217390581#1 25799283#0 25799283#1 25332283#0 25332283#1 -25332283#2 -25332283#3 -25332283#4 31091036#6 31091036#5" busStop="349047813"/> <!-- Mühlweg -->
        <ride from="93704167#0" to="179081032#0" busStop="3890748391" lines="60:1" intended="pt_tram_60:1.1" depart="1438.00"/> <!-- S Friedrichshagen -->
        <walk edges="-9628124#0 -9628124#1 -9628124#2 43167434#2 43167434#1 43167434#0 328399245 -37849738#6"/>
    </person>

    <person id="ped75" type="ped_pedestrian" depart="761.38" arrival="1727.00">
        <walk edges="9623807 310306839#3" busStop="-1906474291"/> <!-- Hirschgarten -->
        <walk edges="173640273#2 193875643 589843573 150103640#1 706438772 -148614183#20 -148614183#18 148614183#17 148614183#16 148614183#15 148614183#14 148614183#13 -15228215#3 25799375 217390584#0 217390584#1 90212653" busStop="319242587"/> <!-- S Hirschgarten -->
        <walk edges="294991110#0 294991110#1"/>
    </person>

    <person id="ped48" type="ped_pedestrian" depart="487.28" arrival="1759.00">
        <walk edges="9624204#1 9624204#2 -9623625 329190066#0 217386905 25000125#1 25000125#0 75252111#4 75252111#2 75252111#1 75252111#0 31091036#16 31091036#15 31091036#14 31091036#13 31091036#12 31091036#11 31091036#10" busStop="349047810"/> <!-- Westendsiedlung -->
        <ride from="93704177#1" to="173640262" busStop="349058473" lines="60:1" intended="pt_tram_60:1.1" depart="1374.00"/> <!-- Ahornallee -->
        <walk edges="151237817#4 151237846#0 151237846#1 -151237831#15 -151237831#14 -151237804#3 25408839#0"/>
    </person>

    <person id="ped30" type="ped_pedestrian" depart="304.55" arrival="1768.00">
        <walk edges="78061251#0 -336735697#2 -336735697#3 -38095492#0 -38095492#1 78061245#0 78061245#1 217386903#0 217386903#1 148614183#15 148614183#14 148614183#13 148614183#12 148614183#11 148614183#10 -148614183#9 25192969#0 25192969#1 25192969#2 25192969#3 25192969#4 25192969#5 25332283#2 25332283#3 25332283#4 31091036#6 31091036#5" busStop="349047813"/> <!-- Mühlweg -->
        <ride from="93704167#0" to="179081032#0" busStop="3890748391" lines="60:1" intended="pt_tram_60:1.1" depart="1438.00"/> <!-- S Friedrichshagen -->
        <walk edges="-9628124#0 -9628124#1 -9628124#2 43167434#2 43167434#1 43167434#0 456662393 283006421#2"/>
    </person>

    <person id="ped5" type="ped_pedestrian" depart="50.76" arrival="1783.00">
        <walk edges="-336735697#0 -336735697#2 -336735697#3 -336735697#4 -336735697#5 -336735697#6 173640273#3 193875645#0 193875645#3 -329190066#0 217386905 25000125#2 331318342#0 331318342#1 331318342#2 331318342#3 331318342#4 331318342#5 331318342#6 331318342#8 410646532#0" busStop="271779546"/> <!-- Spreestraße -->
        <ride from="25307900#0" to="30689379#0" busStop="3890748385" lines="61:0" intended="pt_tram_61:0.1" depart="1537.00"/> <!-- Müggelseedamm/Bölschestraße -->
        <walk edges="682460125#1 462832355#2 -331318343#4 -331318343#3 -331318343#2 25016105"/>
    </person>

    <person id="ped63" type="ped_pedestrian" depart="639.56" arrival="1784.00">
        <walk edges="-148614183#2 -148614183#1 -148614183#0 193875628#3 193875628#2 193875628#1 193875628#0 283006414#2 283006414#1 283006414#0 -25307868#0 -25307868#1 -25307868#2 -25307868#3 -25307868#4 43167434#2 43167434#1 43167434#0 328399245 37849738#6 37849738#5 587672075#2 587672075#1"/>
    </person>

    <person id="ped118" type="ped_pedestrian" depart="1197.90" arrival="1799.00">
        <walk edges="462852149 151237831#1 151237831#2 151237831#3 151237831#4 -151237831#5 -151237831#6 -151237831#7 -355345464#0 -355345464#1"/>
    </person>

    <person id="ped79" type="ped_pedestrian" depart="801.99" arrival="1835.00">
        <walk edges="-353905998 -353906000#1 353906000#0 353916927#1 26489577#4 26489584#0 26489584#1 26489584#2 26489584#3 26489584#4 26489584#5 26489584#6 26489584#7 26489584#8 26489584#9 26489584#10 31091036#16 75252111#0 75252111#1 505321892 150103640#1 589843573 -38095508#3 -38095508#2 -336735697#5"/>
    </person>

    <person id="ped101" type="ped_pedestrian" depart="1025.32" arrival="1838.00">
        <walk edges="441521944#2 -441521944#0 -441521936#1 221885377#1 221885377#0 148614177#2 31091036#3 31091036#2 31091036#1 31091036#0 193875628#3 193875628#2 193875628#1 193875628#0 283006414#2" busStop="349058473"/> <!-- Ahornallee -->
        <ride from="173640262" to="179081032#0" busStop="3890748378" lines="60:1" intended="pt_tram_60:1.1" depart="1511.00"/> <!-- Marktplatz Friedrichshagen -->
        <walk edges="30689380#0 -283006412#0 -283006412#1 -283006412#2 151237827#7 151237827#6 151237827#4 -26489568#2"/>
    </person>

    <person id="ped148" type="ped_pedestrian" depart="1502.45" arrival="1863.00">
        <walk edges="154754299#3 -154754299#2 -154754299#1 -154754299#0 -723757291#0 -723757292 -723757293 124907823#0 124907823#1 -142540750"/>
    </person>

    <person id="ped56" type="ped_pedestrian" depart="568.50" arrival="1888.00">
        <walk edges="25000125#2 331318342#0 331318342#1 331318342#2 331318342#3" busStop="349050439"/> <!-- Wassersportzentrum -->
        <ride from="144077982#2" to="30689379#1" busStop="3890748380" lines="61:0" intended="pt_tram_61:0.1" depart="1460.00"/> <!-- Marktplatz Friedrichshagen -->
        <walk edges="-124907822 -124907823#0 -150937060 -266454540#3"/>
    </person>

    <person id="ped87" type="ped_pedestrian" depart="883.20" arrival="1889.00">
        <walk edges="37849792#4 26489522#0 9702843#1 9702843#0 -25307934#1 682460125#0 682460125#1" busStop="3890748385"/> <!-- Müggelseedamm/Bölschestraße -->
        <ride from="30689379#0" to="107704578" busStop="1883458398" lines="60:0" intended="pt_tram_60:0.1" depart="1449.00"/> <!-- S Friedrichshagen -->
        <walk edges="594582762 594582763 9628124#0 -9628124#1 -9628124#2 43167434#2 43167434#1 43167434#0 -456662393 -283006421#2"/>
    </person>

    <person id="ped26" type="ped_pedestrian" depart="263.94" arrival="1893.00">
        <walk edges="-38095779#1 25016109#0 279125395#0 279125395#1 279125395#2 279125395#3 217386901#0 217386901#1 217386901#2 31091036#13 172696041#1 -441521950 -15228215#3 25799375 217390584#0 217390584#1 90212653" busStop="319242587"/> <!-- S Hirschgarten -->
        <walk edges="294991110#0 294991101 294991103#1 -294991095 294991104#1 -23045995#1 23045995#2 -587687976#0 35414073#0 587291619#0 587291619#1 589857261 -587687959#1 -25799153#11 -25799153#13 -25799153#14 -25799153#15 25799153#16 25799153#17 587687975#1"/>
    </person>

    <person id="ped76" type="ped_pedestrian" depart="771.53" arrival="1916.00">
        <walk edges="172696059#1 172696048#4 -154754299#1 -154754299#0 -723757291#0 -723757292 -723757293 -150937060 25194206#0 25194206#1 25194206#2 25194206#3 25194206#4 25194206#5 25194206#6"/>
    </person>

    <person id="ped90" type="ped_pedestrian" depart="913.65" arrival="1928.00">
        <walk edges="353619698#6 353619698#5 353619698#4 353619698#3 353619698#2 353619698#1 353619698#0 353619694#3 353701671#0 353701671#1 723757291#7 723757291#6 723757291#5 723757291#4 723757291#3 723757291#1 723757291#0 723757292 30689380#1 30689380#0" busStop="3890748380"/> <!-- Marktplatz Friedrichshagen -->
        <ride from="30689379#1" to="107704578" busStop="1883458398" lines="60:0" intended="pt_tram_60:0.1" depart="1516.00"/> <!-- S Friedrichshagen -->
        <walk edges="594582762 594582763 9628124#0 -9628124#1 -9628124#2 25307868#4 -25307868#3 461015804 206798692#1 54428875#1 54428875#2 328400408#0 328400402 31307043#2 31307043#1 31307043#0 31307037#1"/>
    </person>

    <person id="ped53" type="ped_pedestrian" depart="538.04" arrival="1935.00">
        <walk edges="-25192969#1 141520964#1 44773369 31091036#9 31091036#10" busStop="-1844135182"/> <!-- Westendsiedlung -->
        <walk edges="26489713#2 38095774#3 38095759#0 38095759#1 38095759#2" busStop="1844135181"/> <!-- Wassersportzentrum -->
        <walk edges="331318342#2 331318342#3" busStop="349050439"/> <!-- Wassersportzentrum -->
        <ride from="144077982#2" to="30689379#0" busStop="3890748385" lines="61:0" intended="pt_tram_61:0.1" depart="1460.00"/> <!-- Müggelseedamm/Bölschestraße -->
        <walk edges="682460125#1 462832355#2 -331318343#4 -331318343#3 -331318343#2 -331318343#1 -331318343#0 72442767#0 72442767#1 72442767#2 172696048#0"/>
    </person>

    <person id="ped65" type="ped_pedestrian" depart="659.86" arrival="1944.00">
        <walk edges="-511123861#1 -511123861#2 -511123861#0 -72410621#0 -72410622#1 -72410622#0 25000112#4 -25192962#3 -25192962#2 25194206#4 25194206#3 25194206#2 25194206#1 25194206#0 -150937060 -723757293 -723757292 -723757291#0 -723757291#1 -723757291#3 -723757291#4 -723757291#5 -723757291#6 -151237831#5"/>
    </person>

    <person id="ped178" type="ped_pedestrian" depart="1807.01" arrival="1944.00">
        <walk edges="706438772 150103640#1 589843573 -38095508#3 -38095508#2 -38095508#1"/>
    </person>

    <person id="ped112" type="ped_pedestrian" depart="1136.99" arrival="1945.00">
        <walk edges="-151237831#3 -151237831#2 -151237831#1 462852149 72416936#1 72416936#0 -72442767#0 331318343#0 331318343#1 25016105 191238427#0 9702843#1 26489522#0 37849792#4 378382066#1 378382064 26489523#2 26489523#1"/>
    </person>

    <person id="ped134" type="ped_pedestrian" depart="1360.33" arrival="1946.00">
        <walk edges="304398009#2 456662393 43167434#0 43167434#1 43167434#2 -9628124#2 9628124#1 9628124#0 594582763 594582762" busStop="1883458398"/> <!-- S Friedrichshagen -->
        <ride from="107704578" to="173640272#1" busStop="1844135106" lines="60:0" intended="pt_tram_60:0.1" depart="1639.00"/> <!-- Mühlweg -->
        <walk edges="441521967#2 441521967#1 441521951 217386898#1 -217386902#1 -141520970#2 -141520970#1 -141520970#0"/>
    </person>

    <person id="ped39" type="ped_pedestrian" depart="395.92" arrival="1957.00">
        <walk edges="-38095495#1 -38095495#0 -38095492#1 78061245#0 78061245#1 217386903#0 217386903#1 148614183#15 148614183#14 148614183#13 148614183#12 148614183#11 148614183#10 -148614183#9 25192969#0 25192969#1 25192969#2 25192969#3 25192969#4 25192969#5 25332283#2 25332283#3 25332283#4 31091036#6 31091036#5" busStop="349047813"/> <!-- Mühlweg -->
        <ride from="93704167#0" to="173640262" busStop="349058473" lines="60:1" intended="pt_tram_60:1.1" depart="1438.00"/> <!-- Ahornallee -->
        <walk edges="151237817#4 151237846#0 151237846#1 -151237831#15 -151237831#14 -151237831#12 -151237831#11 -151237831#10 -151237831#9 -355345464#0 355345465 -355345465"/>
    </person>

    <person id="ped11" type="ped_pedestrian" depart="111.67" arrival="1992.00">
        <walk edges="-723757589#0 -25000112#8 -25000112#7 -25000112#6 -25000112#5 -25000112#4 -25000112#3 -25000112#2 -25000112#1 -25000112#0 25194873#3 25194873#0 -150937119#2 23463721#3 23463721#2 23463721#1 23463721#0 426572490#0 -150937052 520100576#0 520100576#1 594582762 594582763 9628124#0 -9628124#1 -9628124#2 25307868#4 -25307868#3 461015804 206798692#1 54428875#1 54428875#2 328400408#0 328400402 31307043#2 31307043#1 67196896 34022544#3 34022544#2 34022544#1 34022544#0 328400411#3 -37849716#1 -37849716#0 217390621 -26192423"/>
    </person>

    <person id="ped23" type="ped_pedestrian" depart="233.49" arrival="2008.00">
        <walk edges="-25016104 25016104 -25000104#3 -25000104#4 -151237831#0 -151237831#1 -151237831#2 -151237831#3 -151237831#4 -151237831#5 -151237831#6 -151237831#7 -151237831#9 -151237831#10 -151237831#11 -151237831#12 -151237831#14 -151237831#15 151237846#1 151237846#0 151237817#4" busStop="349058473"/> <!-- Ahornallee -->
        <ride from="173640262" to="179081032#0" busStop="3890748391" lines="60:1" intended="pt_tram_60:1.1" depart="1511.00"/> <!-- S Friedrichshagen -->